% Model:              shifted-lattice-Si-orthotrope_alp00.mph
% Version:            COMSOL 6.0.0.318
% Date:               Sep 22 2022, 16:28
% Dimension:          1
% Nodes:              861
% Expressions:        50
% Description:        Global
% X,Frequency,Frequency,Frequency,Frequency,Frequency,Frequency,Frequency,Frequency,Frequency,Frequency,Frequency,Frequency,Frequency,Frequency,Frequency,Frequency,Frequency,Frequency,Frequency,Frequency,Frequency,Frequency,Frequency,Frequency,Frequency,Frequency,Frequency,Frequency,Frequency,Frequency,Frequency,Frequency,Frequency,Frequency,Frequency,Frequency,Frequency,Frequency,Frequency,Frequency,Frequency,Frequency,Frequency,Frequency,Frequency,Frequency,Frequency,Frequency,Frequency,Frequency
0,0,760.3405397986651,2536.069018789119,8.714336998359066E9,1.037372757349178E10,1.5330047792636106E10,1.6858049443636444E10,1.7893428316002197E10,1.8188615548600845E10,1.891184744873982E10,1.900638528303269E10,2.013410775616388E10,2.0279332294267193E10,2.141600345821264E10,2.196031246947227E10,2.207571624946838E10,2.3357226435586056E10,2.441560797239623E10,2.6678407020622486E10,2.679674883720691E10,2.732796678409361E10,2.7597076742314316E10,2.83018480331839E10,2.8383016303319405E10,2.858123617709016E10,2.9726387763531662E10,3.090476146085573E10,3.1415873689588486E10,3.2187174638787586E10,3.297748266055204E10,3.451616863386224E10,3.5298323013593094E10,3.565291033561611E10,3.574957909202915E10,3.5915692819628876E10,3.619402216945246E10,3.625202897899452E10,3.710650077352652E10,3.77559608023379E10,3.897644244744646E10,3.92477372936764E10,3.958833279324014E10,4.0027510601645134E10,4.055451342737424E10,4.132812017930365E10,4.144119103762198E10,4.189185086363344E10,4.199097354199011E10,4.2005530665327324E10,4.283133586314922E10
392699.0816987242,9246939.83098159,1.2333098593068163E8,4.081117205572102E8,8.721601699966581E9,1.0374860777397976E10,1.5314429997928904E10,1.6854834642453835E10,1.789529785392447E10,1.818110868034291E10,1.8893863805342587E10,1.9008967594472103E10,2.014998125919375E10,2.0280215242766235E10,2.14229480466371E10,2.197913739834872E10,2.2077316775769234E10,2.3357855177087433E10,2.4416801094162735E10,2.6537735272383274E10,2.693712726456554E10,2.7326601443910507E10,2.7591243831018364E10,2.8301342882097153E10,2.8391443639321175E10,2.8579111938021313E10,2.9733755803318825E10,3.0904776427703316E10,3.1417264045476658E10,3.2188840136947746E10,3.2977705976843422E10,3.451057391196231E10,3.529223863076261E10,3.565299500833713E10,3.574153388846393E10,3.59196435680771E10,3.620927772214203E10,3.625203528274592E10,3.7052405045586395E10,3.7741608062382385E10,3.902592967894641E10,3.9250225672886314E10,3.95819559841941E10,4.002418599672616E10,4.0555272752677895E10,4.132467552606939E10,4.1428699833543625E10,4.189049548331026E10,4.199053927728743E10,4.199744275771081E10,4.280819633005493E10
785398.1633974484,3.685734314807522E7,2.467311260400429E8,8.159559692595625E8,8.743226516274918E9,1.0378262477416174E10,1.5268243501000154E10,1.6845283350809683E10,1.7900831099358788E10,1.8158887880956444E10,1.8841230369990505E10,1.9016605762082138E10,2.019700897735408E10,2.028286778887333E10,2.1443459327521034E10,2.203428117934436E10,2.2082173686631447E10,2.335976197484187E10,2.4420387636019505E10,2.635124212897084E10,2.712270841326753E10,2.7322448391282623E10,2.7574433448464233E10,2.83001034873398E10,2.841603845128865E10,2.8572752177790203E10,2.975562727079598E10,3.090483695135692E10,3.142142881727966E10,3.219384314707858E10,3.2978380110102695E10,3.4493997073175095E10,3.527431778653512E10,3.565322222400706E10,3.572051433968935E10,3.593102492249137E10,3.6251705243641914E10,3.6252055440106346E10,3.690453086677897E10,3.769941683326524E10,3.916000319934962E10,3.925679421172516E10,3.9562908410274414E10,4.001455955181717E10,4.055747645157285E10,4.1315162640442215E10,4.1392854987193634E10,4.188644629356612E10,4.194727713218862E10,4.201526806564354E10,4.274115342061244E10
1178097.2450961727,8.244782901746033E7,3.702687043392457E8,1.22326334405222E9,8.778711250073515E9,1.0383938922813164E10,1.5193361143142004E10,1.6829666208645891E10,1.790982880206284E10,1.812281555217795E10,1.8757481461959206E10,1.9028983173746174E10,2.027351342559886E10,2.0287300733341244E10,2.147660063945489E10,2.20904595165629E10,2.2122167975634956E10,2.3363007656163605E10,2.4426390021330894E10,2.6162079592289955E10,2.7310243605088E10,2.7315348342074757E10,2.75484019218264E10,2.829890493633683E10,2.84550477421079E10,2.8562195478117958E10,2.9791345524568695E10,3.090498982650447E10,3.142834944345397E10,3.220220331942425E10,3.297951816838107E10,3.4467038790181305E10,3.524538111037543E10,3.565348777979221E10,3.569269820735339E10,3.594859162294972E10,3.625209320294257E10,3.631447864011802E10,3.66915775907134E10,3.763177355678003E10,3.926498044937379E10,3.93500623067814E10,3.953142550056232E10,3.999975979070138E10,4.056091650325491E10,4.130111683706907E10,4.1337357368367226E10,4.187975111202445E10,4.188074378079266E10,4.204088752607078E10,4.263620633048556E10
1570796.3267948967,1.4540454475581077E8,4.94010256536914E8,1.6297605636530082E9,8.827246720236551E9,1.0391900476416111E10,1.5092532228641392E10,1.6808407158465073E10,1.7922031917146442E10,1.807421718155605E10,1.864739020292938E10,1.904560255771046E10,2.0293531088084568E10,2.0376997586761642E10,2.1520901412275936E10,2.2102484157621784E10,2.223795200507171E10,2.336769064788064E10,2.4434848776126026E10,2.597261403352922E10,2.730507370587451E10,2.7497203461216328E10,2.7515320268982864E10,2.8298880290725666E10,2.8506305625563545E10,2.854750520480863E10,2.983993710015067E10,3.0905312801720394E10,3.143799604958423E10,3.2213953632080864E10,3.2981143926122524E10,3.443063131053289E10,3.520634665502854E10,3.5653492019454544E10,3.5663110658665146E10,3.597068765660674E10,3.6252154869710106E10,3.639155964213831E10,3.643777269806857E10,3.754209343256493E10,3.92713138038965E10,3.948786157007738E10,3.95721711249937E10,3.9981858886743E10,4.0565289624495384E10,4.126600090707133E10,4.128224990585815E10,4.1799424002982864E10,4.187047974856447E10,4.207073752994369E10,4.250065709676741E10
1963495.4084936208,2.249172197809398E8,6.180196754053674E8,2.0351684810063305E9,8.887747979276476E9,1.0402161535555666E10,1.4968975641810207E10,1.6782048582210398E10,1.793718827425417E10,1.801474786046369E10,1.8515973419469765E10,1.9065825711202007E10,2.0301580649389816E10,2.0504484686580482E10,2.1574457427168247E10,2.211872948488608E10,2.2376506762070507E10,2.3373942607645485E10,2.4445827934076927E10,2.578349549449617E10,2.7291379713851063E10,2.7477232982242516E10,2.768270591004667E10,2.8301335550916172E10,2.8528768183848755E10,2.856777390725495E10,2.9900245624094723E10,3.0905914225083214E10,3.1450328955471756E10,3.2229140308963253E10,3.2983295004237938E10,3.438594462254883E10,3.515786931954526E10,3.563462697944634E10,3.565217756718238E10,3.599555905890294E10,3.615932680880899E10,3.6252249356892204E10,3.647878665023339E10,3.743435021695912E10,3.927199652947837E10,3.94326488848376E10,3.981116760151649E10,3.9963863768987885E10,4.057024540215414E10,4.1181720680396484E10,4.125276615483863E10,4.1716851206931015E10,4.185871001542508E10,4.210220322425076E10,4.2341292477352165E10
2356194.4901923453,3.2002048597158504E8,7.423572907123677E8,2.4392000408382463E9,8.958894704893974E9,1.0414740420811506E10,1.482601455801657E10,1.6751212029353662E10,1.7946256748095898E10,1.7955095828175137E10,1.8367830707057156E10,1.9088919411996708E10,2.0311474132560776E10,2.0652839534721153E10,2.1635021070386284E10,2.213989634474566E10,2.2533076148700962E10,2.3381922437575405E10,2.445942417042143E10,2.5595061395146194E10,2.7274063341698643E10,2.7435808728181515E10,2.7866109112264503E10,2.8307568288337395E10,2.850609300202241E10,2.8637790499848328E10,2.9971053956415676E10,3.090693254044319E10,3.146530062589101E10,3.2247821786589005E10,3.298602795887861E10,3.433427703240434E10,3.510013041385656E10,3.560855256554372E10,3.564266592202441E10,3.587205814735081E10,3.602149255295092E10,3.625238830503034E10,3.657340067477937E10,3.7312812525413155E10,3.926364180095127E10,3.936626251517194E10,3.99492812863181E10,4.005810464506557E10,4.057542998130394E10,4.108656902042984E10,4.119894535190046E10,4.1652879245578674E10,4.184450966304622E10,4.2133640934067795E10,4.216362690506198E10
2748893.571891069,4.2963784776260537E8,8.670789135783736E8,2.841558163487509E9,9.039174417792435E9,1.0429659232062483E10,1.466681691337119E10,1.6716560270984259E10,1.787067291615506E10,1.7975617073988922E10,1.820685639740413E10,1.911410154096249E10,2.0323237039967297E10,2.081901256981429E10,2.170007185862172E10,2.2166949907645348E10,2.2703546582516186E10,2.3391808824950333E10,2.4475781844417736E10,2.5407550540708683E10,2.7253017135889736E10,2.7392308193396675E10,2.8046793838842983E10,2.831872470609287E10,2.8479608061458042E10,2.8715100436885998E10,3.005117243108935E10,3.0908535561939316E10,3.148285792943143E10,3.2270065629239765E10,3.2989426068607635E10,3.4276950781839893E10,3.503276113139249E10,3.5513522546039276E10,3.558528465958671E10,3.569276435110434E10,3.604679092557191E10,3.625258622717816E10,3.6673482904895065E10,3.718200238713978E10,3.924405270351072E10,3.9289198079728455E10,3.994124239601411E10,4.030761504299447E10,4.058051694698855E10,4.098198199297426E10,4.11072101828114E10,4.162538587844999E10,4.182791557810963E10,4.197186253732013E10,4.216411091318803E10
3141592.6535897935,5.52624183094031E8,9.922348337526609E8,3.2419335380815477E9,9.12692478941048E9,1.0446943671046318E10,1.4494249391848503E10,1.6678764705261553E10,1.7789922993758236E10,1.799867329079733E10,1.8036202826228027E10,1.9140583011883846E10,2.0336893521897705E10,2.10001899824582E10,2.1766900306079025E10,2.220111949223485E10,2.288445767768069E10,2.3403791517957695E10,2.4495117940672447E10,2.5221160121268448E10,2.7228264872826664E10,2.734764692028693E10,2.8224103466513508E10,2.8335712013211845E10,2.8449459528280632E10,2.8798791633204414E10,3.013948884178911E10,3.0910919340851425E10,3.1502944559066864E10,3.2295941671375168E10,3.299361109222579E10,3.4215229524012085E10,3.495484983691992E10,3.521233564493361E10,3.5564748376396355E10,3.56772436477813E10,3.606962740719109E10,3.625286070785246E10,3.6777593968479065E10,3.704681246687661E10,3.9201962871062614E10,3.921279230940825E10,3.9941592848933235E10,4.055630930529788E10,4.0585223625780136E10,4.086903140455317E10,4.09788746155845E10,4.1635839978575645E10,4.176913237187458E10,4.180891163507429E10,4.2193126137745544E10
3534291.7352885175,6.878036885325855E8,1.1178687563872502E9,3.640002309554074E9,9.220372471939823E9,1.0466622829343294E10,1.4310820827845026E10,1.6638480086106194E10,1.7705880093322227E10,1.7858364337692596E10,1.8024230071700443E10,1.9167602995874443E10,2.035246458127432E10,2.1193862184078396E10,2.1832795661051453E10,2.2243762308268944E10,2.307287461090582E10,2.3418061617637836E10,2.4517764341153946E10,2.5036067780089E10,2.7199971079657627E10,2.7302477943906437E10,2.8359167095871147E10,2.839732086266065E10,2.8415809311046284E10,2.888821056379848E10,3.0234986346175125E10,3.0914306254053E10,3.152550346998171E10,3.2325508739257904E10,3.2998761013621353E10,3.415026515749113E10,3.4865010778920235E10,3.489012244732605E10,3.554664946086974E10,3.5676761424419846E10,3.608779264118589E10,3.625323266582986E10,3.6884564044224236E10,3.6912721262480644E10,3.910507681959366E10,3.917114810753718E10,3.995050625758711E10,4.0589315209108246E10,4.0748602495143936E10,4.080187504972907E10,4.082522870737621E10,4.1557808533973946E10,4.167475515486415E10,4.1787406609417336E10,4.2220478197013115E10
3926990.8169872416,8.340014055826875E8,1.2440166626391773E9,4.0354236461224914E9,9.317667264467289E9,1.0488728940320972E10,1.411868309819309E10,1.659632682023427E10,1.7620337333236027E10,1.7675297958956894E10,1.805228210397321E10,1.9194456502698483E10,2.036996703832927E10,2.1397833856176254E10,2.189543896946575E10,2.229599564001207E10,2.3266192050488285E10,2.3434801247140587E10,2.454424159009281E10,2.485244430363612E10,2.716842490216538E10,2.725726425787743E10,2.8378833192847153E10,2.8389470767555466E10,2.8565658820807026E10,2.8982887797384113E10,3.033673807759922E10,3.0918941674575172E10,3.155047920101394E10,3.2358790936908787E10,3.300513692011898E10,3.408307244486925E10,3.456088228352124E10,3.4761525239804436E10,3.553061263346958E10,3.567897398266564E10,3.609833794833385E10,3.625372669611143E10,3.678605149956804E10,3.69933651521994E10,3.89990786837137E10,3.912147396966051E10,3.996663793469387E10,4.059260045098013E10,4.06215121976274E10,4.065635079245824E10,4.104226261415233E10,4.13400743379743E10,4.173354313937666E10,4.176321357161927E10,4.224612708394626E10
4319689.898685967,9.90067597660861E8,1.3707055754387572E9,4.427837176996923E9,9.416911730351973E9,1.051329709305888E10,1.3919662713821596E10,1.6552879970360369E10,1.7488540078121178E10,1.7534997362389812E10,1.8082840826584877E10,1.9220514392573383E10,2.0389413674091328E10,2.1610197249784008E10,2.195343801036966E10,2.235816864451036E10,2.345417303792628E10,2.346188289345145E10,2.457539154024916E10,2.467046528087939E10,2.713400638382725E10,2.7212334289874268E10,2.8338719223888783E10,2.8426790516259476E10,2.872825930868047E10,2.9082480137830692E10,3.0443884766176964E10,3.0925088233374447E10,3.1577819960721035E10,3.2395737589243465E10,3.3013123768256786E10,3.4014524708506477E10,3.422738456246799E10,3.464257733334431E10,3.551625256032502E10,3.568241452262727E10,3.609727209363587E10,3.625437151132052E10,3.667407688817523E10,3.710302311041233E10,3.888453363835814E10,3.906636920242111E10,3.998690709544204E10,4.048003782358012E10,4.048859221087355E10,4.059492215259687E10,4.111268311151324E10,4.128081943263472E10,4.173603229803406E10,4.180678175235984E10,4.227013309096829E10
4712388.980384691,1.1548951212961082E9,1.4979522083455331E9,4.816860294579655E9,9.516187412758383E9,1.0540364905599722E10,1.371530501235414E10,1.6508663597252684E10,1.7299304528407124E10,1.745146991291362E10,1.811592573119786E10,1.9245236403419846E10,2.0410814877791775E10,2.1829282769262882E10,2.200664997130959E10,2.242953483648096E10,2.3476309937460587E10,2.3657154346212257E10,2.44903273440887E10,2.4612620900161194E10,2.7097146356112026E10,2.716792203697118E10,2.8295666465587814E10,2.847113418821146E10,2.8884202017930603E10,2.9186727604256943E10,3.055559617232522E10,3.0933016286628162E10,3.1607479371973953E10,3.243615875489493E10,3.3023291675143295E10,3.3891118106097733E10,3.394536285340099E10,3.450658161429761E10,3.550320630893822E10,3.568671881907311E10,3.6080080680660645E10,3.62552005077823E10,3.658420862788814E10,3.721254460167004E10,3.8762039861249466E10,3.900810227370953E10,4.000254804793826E10,4.030760392822288E10,4.035075667207503E10,4.059614449850128E10,4.088558486515895E10,4.150755690712533E10,4.170543677534948E10,4.189107866790427E10,4.229261470615405E10
5105088.062083414,1.3274304983810666E9,1.625761471140635E9,5.202085321732838E9,9.613579466501663E9,1.056997215395005E10,1.3506920456871906E10,1.6464149000873602E10,1.710855986314353E10,1.7371271043635773E10,1.815155877569886E10,1.9268177989090633E10,2.0434181918778942E10,2.2053589874741608E10,2.205597964586478E10,2.2508442676498756E10,2.3501305879456688E10,2.384842634290282E10,2.4312277887207607E10,2.4658342847188843E10,2.705828951074905E10,2.7124195468359E10,2.824988416777288E10,2.852240115949538E10,2.9032524648352917E10,2.929542143384091E10,3.0671007761336124E10,3.0942988884073143E10,3.163941777447289E10,3.2479627184836544E10,3.303648518886673E10,3.3553276375769855E10,3.3876211326465324E10,3.43525407274935E10,3.54911445772944E10,3.569177872750073E10,3.604441661968152E10,3.625625248753688E10,3.652097738610496E10,3.732084298069835E10,3.86322330496578E10,3.8948336707893684E10,3.997245905136E10,4.018183588127471E10,4.0209070286442856E10,4.059613795188241E10,4.065345387053196E10,4.167087090267899E10,4.1727173917502266E10,4.198414965352562E10,4.2313722366555016E10
5497787.143782138,1.5066796765972958E9,1.7541248008339782E9,5.583076553334606E9,9.707201805513615E9,1.0602160352011002E10,1.3295627805323069E10,1.6419755589877132E10,1.6917088335492704E10,1.7295819515496704E10,1.8189761038676765E10,1.9288991859583527E10,2.0459531668726116E10,2.2102829344509632E10,2.228168263486128E10,2.2592871493920357E10,2.352920785129931E10,2.4030557308243885E10,2.4136680433455494E10,2.4716689111637745E10,2.7017866103417973E10,2.7081276531530518E10,2.8201591462936058E10,2.8580423452457367E10,2.9172257848697857E10,2.9408379408256325E10,3.0789103789480198E10,3.095523954381525E10,3.1673602977143307E10,3.252534262037671E10,3.3053942977451645E10,3.321508380617315E10,3.3807596709207375E10,3.4180316593592533E10,3.547977178688929E10,3.5697575388969635E10,3.599349592887449E10,3.6257572574131615E10,3.648239592068235E10,3.7426648405336044E10,3.849578875655035E10,3.888801306769295E10,3.983551373357097E10,4.006483184455498E10,4.016535839946187E10,4.041818903948895E10,4.05947612032881E10,4.163165725721979E10,4.192997967654982E10,4.2084340183706154E10,4.2120114969138695E10
5890486.225480862,1.6917095300961509E9,1.883018280792794E9,5.959367192973398E9,9.795224750700039E9,1.0636972275908749E10,1.3082392080213379E10,1.6375853371579617E10,1.6725530271578781E10,1.7226427358820877E10,1.8230550823370907E10,1.9307425194324543E10,2.0486892273478664E10,2.214861983804131E10,2.2511983475374027E10,2.2680895419658646E10,2.356000983354149E10,2.3964185157889637E10,2.4196141320361538E10,2.479416468178659E10,2.6976273699020428E10,2.7039255314052082E10,2.815101768218336E10,2.864499438744353E10,2.930247675635563E10,2.952542531548658E10,3.0908460774544598E10,3.096994189001044E10,3.171001032612405E10,3.257197787639743E10,3.287812490239326E10,3.307742725263974E10,3.3739966515608913E10,3.399070863995522E10,3.54688206922339E10,3.570413155274841E10,3.593482478133424E10,3.625921336627065E10,3.64611849924862E10,3.752838584474318E10,3.835342299137324E10,3.882721005010523E10,3.965350459451591E10,3.991969029728468E10,4.018052402424247E10,4.01981286664971E10,4.059183834175101E10,4.158702615960142E10,4.187772943154718E10,4.216120711103356E10,4.2190382217166916E10
6283185.307179587,1.8816460769976296E9,2.0124005038361928E9,6.330456220954604E9,9.875906652525269E9,1.067445142384452E10,1.2868056975061117E10,1.6332766321288141E10,1.6534417310935322E10,1.716428315027163E10,1.8273942618128345E10,1.9323313574828403E10,2.0516308997715874E10,2.2194562909754017E10,2.2742192012431263E10,2.277089573613538E10,2.359364897094762E10,2.379627872885535E10,2.4336669974831863E10,2.489844820046052E10,2.6933867766698174E10,2.6998200175824047E10,2.809840344607324E10,2.871588552969102E10,2.942236815274035E10,2.9646369597293697E10,3.0987172176648273E10,3.1026564882586025E10,3.174862190183362E10,3.2545058874057583E10,3.2617587668199654E10,3.310928177505016E10,3.3673707128066074E10,3.378532226397364E10,3.545804448376009E10,3.571149493809171E10,3.587544660389909E10,3.626123637667689E10,3.644969181866984E10,3.762400047075765E10,3.8205891774513535E10,3.876479293992476E10,3.946388588718942E10,3.97758144643724E10,3.99410617098199E10,4.024521520127223E10,4.058712768653612E10,4.153617485237327E10,4.166610662528763E10,4.230126050050358E10,4.235214881080909E10
6675884.388878312,2.075670238271011E9,2.1422101271664813E9,6.695805249532841E9,9.947630071111383E9,1.0714641399316345E10,1.2653372151313105E10,1.6290776117495596E10,1.6344197358067099E10,1.7110427933985367E10,1.8319946508744934E10,1.933657271318503E10,2.0547849314798923E10,2.2241619443513466E10,2.286158804303489E10,2.2966831645695538E10,2.3630004171241528E10,2.3637710794553802E10,2.444775199601099E10,2.503314192444644E10,2.689095886308869E10,2.695816510334945E10,2.8044002776260933E10,2.879285393741249E10,2.9531307211005367E10,2.977098784714318E10,3.100686909030955E10,3.1137543937270897E10,3.178942457054072E10,3.222190457732898E10,3.2659751291208755E10,3.3152248844954227E10,3.3566312489526093E10,3.3609160688898556E10,3.544720779285594E10,3.57197318690001E10,3.581965277279691E10,3.626371379742742E10,3.644247373549538E10,3.771070927829541E10,3.805399037965368E10,3.869756283533921E10,3.927775205559955E10,3.9636138051579E10,3.970035535246653E10,4.029977393581853E10,4.058027602344985E10,4.144969593166526E10,4.1478368501969315E10,4.238776723526741E10,4.241613105897017E10
7068583.470577035,2.272363058064782E9,2.273011780118653E9,7.054835446167264E9,1.0008941888131836E10,1.0757585200979563E10,1.2439016202235111E10,1.615525343613745E10,1.6250125904786976E10,1.706572517391875E10,1.836856777843958E10,1.9347188995222275E10,2.0581606326071E10,2.229053431753226E10,2.2951972893650986E10,2.3159885231423767E10,2.351383530461253E10,2.3668897138527725E10,2.4533289423235756E10,2.519356984004005E10,2.6847814096657837E10,2.6919195138923412E10,2.798808664165134E10,2.8875641566620335E10,2.9628931647081684E10,2.989899232526499E10,3.1028799286076046E10,3.122246160958602E10,3.183240647723447E10,3.1927757576579174E10,3.269610478010115E10,3.320889327662777E10,3.333612368582285E10,3.3546641323811462E10,3.543607710942926E10,3.572892487216033E10,3.5769382109310974E10,3.626673060196613E10,3.6436203446848434E10,3.7784679086037056E10,3.789855295497502E10,3.861861801966749E10,3.9104672187158424E10,3.9458937553891106E10,3.950468027081956E10,4.035992025526014E10,4.057074753823903E10,4.12326517179593E10,4.1413095021085945E10,4.240450454870845E10,4.253426603021597E10
7461282.552275759,2.4027491995539255E9,2.472941897623819E9,7.406924636110329E9,1.0058595355715225E10,1.0803324395937674E10,1.2225616130932594E10,1.5967918085490477E10,1.6211023871795023E10,1.7030827572699768E10,1.841980652280598E10,1.9355209700111343E10,2.061769975214161E10,2.2341885176514793E10,2.3041272523451294E10,2.3190035560619495E10,2.3555350284253807E10,2.371009564253418E10,2.460151567093307E10,2.5370716329684845E10,2.6804660991388218E10,2.6881330464217278E10,2.7930948656827576E10,2.8963967447895706E10,2.971519648734763E10,3.0029987913851013E10,3.105253982776322E10,3.1210067570796246E10,3.173405068206554E10,3.1877551354953415E10,3.2725090093704716E10,3.3097312966189255E10,3.3280811311630474E10,3.348645146455447E10,3.542441061102528E10,3.5725187759863266E10,3.573917188810943E10,3.6270386899904274E10,3.642893584161111E10,3.774045319169282E10,3.784072561171921E10,3.851633690631965E10,3.895756241602614E10,3.9217338358605774E10,3.938684781065223E10,4.0424922130247795E10,4.05577097048655E10,4.101591799234347E10,4.134028432913119E10,4.242083272358038E10,4.26550124110713E10
7853981.633974483,2.5332286751161275E9,2.674764725571122E9,7.751404731912805E9,1.0095590829081415E10,1.0851898143976454E10,1.2013764144728802E10,1.5782484528698269E10,1.617364651601039E10,1.7006144843847515E10,1.8473657159743793E10,1.9360733528070747E10,2.065627398119611E10,2.2396121945642418E10,2.3067112222485554E10,2.3128876379783516E10,2.3751833783899117E10,2.375331867447806E10,2.4659449526740086E10,2.5556748913920467E10,2.6761692395496872E10,2.6844609531744915E10,2.7872914217436947E10,2.905751024238328E10,2.979039326725862E10,3.0163395023174488E10,3.101464812197623E10,3.107748732556054E10,3.1726719154262325E10,3.192482970737991E10,3.274636095220627E10,3.2852496731723255E10,3.3368191096055573E10,3.3428899392987484E10,3.5411947105152756E10,3.568693506040046E10,3.575058597339033E10,3.6274800207205795E10,3.6419548540147736E10,3.758060685147629E10,3.787238075266986E10,3.8380629695608116E10,3.884727005370139E10,3.897609977327395E10,3.928937149281835E10,4.04944033926041E10,4.053984966485172E10,4.080001464914647E10,4.126060058788829E10,4.2436880911160385E10,4.277775800784429E10
8246680.715673207,2.663627442105922E9,2.877807907754485E9,8.087559678834064E9,1.0119211136246782E10,1.0903342026843145E10,1.180403247922681E10,1.559921551672498E10,1.6138141520891422E10,1.6991817272165028E10,1.8530107737988384E10,1.9363901814810757E10,2.0697492903997204E10,2.245359238832498E10,2.2916982696119133E10,2.321429966942264E10,2.379824298581881E10,2.3976837551190678E10,2.471151897777023E10,2.5746368023842876E10,2.6719071531292362E10,2.680907151045532E10,2.7814355460038383E10,2.9155869878906067E10,2.9855125286599113E10,3.029829982003456E10,3.0725617478201023E10,3.1102896783346497E10,3.1816643712052097E10,3.197418544842519E10,3.260444497903558E10,3.276053976736327E10,3.33743195613638E10,3.3470035453219006E10,3.539839360682189E10,3.5654192336541504E10,3.576329469690171E10,3.628010662382336E10,3.640740704779373E10,3.741997756151976E10,3.7873017350522064E10,3.8214343784477104E10,3.873578940792765E10,3.87714420371048E10,3.921918885491811E10,4.051509472551326E10,4.056810627908231E10,4.0585332401022224E10,4.117580822496726E10,4.245276320661964E10,4.290190038825706E10
8639379.797371933,2.7937321963189282E9,3.0814122175593996E9,8.414624149951167E9,1.0129047546207918E10,1.0957686616985634E10,1.1596986866500319E10,1.541835055645524E10,1.6104630202875673E10,1.698769983035971E10,1.8589138949043545E10,1.936489058638924E10,2.074153144025196E10,2.2514554989824986E10,2.2762513246704403E10,2.3297153152054398E10,2.3844510473575073E10,2.420691229846452E10,2.476025474857162E10,2.5936078789417004E10,2.6676936598797035E10,2.677475822304602E10,2.775571669144971E10,2.9258460378541935E10,2.9910243288487667E10,3.041294073096238E10,3.043313271348705E10,3.1127943267033997E10,3.1934329512149094E10,3.2025515895063774E10,3.235639632136789E10,3.2768665093998493E10,3.3323097848595478E10,3.358470977059958E10,3.538341097191966E10,3.562642576423736E10,3.577743833294569E10,3.628645807835658E10,3.6392167028213264E10,3.725958910162835E10,3.783840846900838E10,3.802886127310852E10,3.849701506579913E10,3.871905851082729E10,3.918089620168334E10,4.037220548799672E10,4.048026486899152E10,4.0645799478355804E10,4.108916028518283E10,4.246857668116718E10,4.302681567380705E10
9032078.879070656,2.9232844682633543E9,3.28492009587755E9,8.731783269547297E9,1.0125013277709778E10,1.1014955690888441E10,1.1393199165960392E10,1.524011207978931E10,1.607320950454262E10,1.6993360578432323E10,1.865072272870503E10,1.9363903445140827E10,2.078856372628807E10,2.2579181523492718E10,2.2608123788411972E10,2.3377121359667095E10,2.389173584402374E10,2.4437039992894783E10,2.480706998132318E10,2.6123358611016953E10,2.6635404528719913E10,2.674171568879761E10,2.7697559826139893E10,2.9364061038239094E10,2.995675744262006E10,3.009613539726818E10,3.056490116315977E10,3.1151791784490177E10,3.2061347944186134E10,3.207864206183761E10,3.2112845072431877E10,3.2771773075811672E10,3.3275704757458054E10,3.3710369846535744E10,3.536659699680609E10,3.5603086212055954E10,3.579316548686824E10,3.629400740894185E10,3.637364456572471E10,3.710055284868403E10,3.776926010667485E10,3.7833501855464294E10,3.826044220262922E10,3.868112144969682E10,3.917423177696688E10,4.016094097940587E10,4.043090992188392E10,4.072723423931172E10,4.100554627474138E10,4.24843991341216E10,4.305884366189922E10
9424777.960769381,3.0519738197974477E9,3.4876628524946012E9,9.038173682512297E9,1.0107343329400337E10,1.107516394786603E10,1.1193259584412703E10,1.5064711036582891E10,1.6043953522027468E10,1.7008095173911251E10,1.8714820294365326E10,1.936116518653201E10,2.083874788772588E10,2.2455232706604076E10,2.264755129407791E10,2.345394684377302E10,2.3939514070591488E10,2.466517686590772E10,2.4852743128652103E10,2.6306082535339252E10,2.6594573547143723E10,2.67099953374353E10,2.7640650654926903E10,2.946688135018385E10,2.9786687802454292E10,2.9995746029498726E10,3.06871487596799E10,3.1173659660472813E10,3.18816133993234E10,3.213326506535359E10,3.2191850406874634E10,3.2770725542657967E10,3.3232740586178493E10,3.384515175352266E10,3.534746655403872E10,3.558363916920983E10,3.58106237816084E10,3.630285521302862E10,3.635171099983813E10,3.694413699758492E10,3.763378091056752E10,3.767112332595745E10,3.802681693738061E10,3.865248667328227E10,3.9194184504016556E10,3.995183582793924E10,4.0362013592475334E10,4.081211907592454E10,4.093072555466551E10,4.250028650340497E10,4.3023093405402405E10
9817477.042468105,3.179430075575197E9,3.6889461602646623E9,9.332886312718819E9,1.0076581697298824E10,1.0997788816880579E10,1.1138314027085693E10,1.4892352373527502E10,1.6016914565793407E10,1.7030956976464375E10,1.8781379396416325E10,1.9356916018627296E10,2.0892207194126556E10,2.230447790604562E10,2.2719638491891273E10,2.3527418710404137E10,2.3987427239506386E10,2.4890020746445484E10,2.4897681295691242E10,2.648208073267184E10,2.655452417953452E10,2.667965492029409E10,2.7586134467796963E10,2.9428069735694805E10,2.962589095624673E10,3.002827762147246E10,3.078420189571116E10,3.119286121932696E10,3.1679638643181103E10,3.2188903602043068E10,3.2323218172614407E10,3.276619447506857E10,3.3194997334497375E10,3.3987206542243046E10,3.5325428842175316E10,3.556756380417945E10,3.5829941188632645E10,3.631286213355139E10,3.632617915044183E10,3.6791974594226746E10,3.743306843252075E10,3.755179044527255E10,3.779699908966596E10,3.8630321145060005E10,3.923362358531337E10,3.974518981938879E10,4.0270075621752884E10,4.08691566844208E10,4.0900102195554504E10,4.251626994388704E10,4.299555365458733E10